 Q-Chem 5.1, Q-Chem, Inc., Pleasanton, CA (2018)
 Q-Chem 5.1.2 for Intel X86 EM64T Linux

User input:
--------------------------------------------------------------
$molecule
0 1
C	-6.2167958009	-0.5388526622	0.7386775327
C	-5.2171170882	-0.1773489771	-0.3488024981
C	-3.7741764932	-0.1492434056	0.1383580386
C	-2.7660654353	0.1943646744	-0.9592468204
C	-1.3378929536	0.2051316272	-0.4819020695
C	-0.6539402853	-0.9930630567	-0.2367111294
H	-1.1573011121	-1.9471011004	-0.4222078838
C	0.6539510312	-0.9930675911	0.2366625879
H	1.1573201536	-1.9471092973	0.4221179373
C	1.3378930057	0.2051226024	0.4819057351
C	0.6568536380	1.4002534744	0.2343824675
H	1.1625127451	2.3536925602	0.4153484716
C	-0.6568641563	1.4002578863	-0.2343272791
H	-1.1625316289	2.3537003375	-0.4152521956
H	-7.2485430330	-0.5482472323	0.3550254958
H	-6.1795060363	0.1804271245	1.5728998992
H	-6.0093525589	-1.5369227483	1.1574323892
H	-5.4751340057	0.8076404488	-0.7771644368
H	-5.3022490047	-0.8956609681	-1.1839423414
H	-3.5135028166	-1.1298624598	0.5753372077
H	-3.6736402711	0.5791922949	0.9626298023
H	-3.0167709582	1.1792712233	-1.3874958061
H	-2.8706538003	-0.5341831062	-1.7825823586
H	3.0167664644	1.1792463318	1.3875236332
C	2.7660643608	0.1943479469	0.9592538939
H	2.8706511656	-0.5342159221	1.7825755635
C	3.7741803035	-0.1492370603	-0.1383535367
C	5.2171189225	-0.1773475955	0.3488125726
C	6.2168031934	-0.5388340044	-0.7386679911
H	3.6736453905	0.5792132728	-0.9626125237
H	3.5135115699	-1.1298490814	-0.5753514935
H	5.3022481112	-0.8956715957	1.1839423918
H	5.4751324883	0.8076359613	0.7771900123
H	6.0093639117	-1.5368985513	-1.1574380735
H	7.2485486273	-0.5482322407	-0.3550111847
H	6.1795163021	0.1804574936	-1.5728804116
$end
$rem
METHOD 		SRC1-R1
BASIS		def2-SVP
CIS_N_ROOTS	200
CIS_TRIPLETS 	FALSE
TRNSS 		TRUE
TRTYPE		3
! Active sapce configuration.
! There are 14 carbons
N_SOL		14
! There are 253 virtual orbitals in total
$end
$solute
1
2
3
4
5
6
7
8
9
10
11
12
13
14
$end
--------------------------------------------------------------

             Standard Nuclear Orientation (Angstroms)
    I     Atom           X                Y                Z
 ----------------------------------------------------------------
    1      C      -6.2188688025    -0.5040303914     0.7210392750
    2      C      -5.2161069484    -0.1425605675    -0.3636097423
    3      C      -3.7745550676    -0.1144403057     0.1276440602
    4      C      -2.7633321669     0.2291335980    -0.9671052544
    5      C      -1.3365204816     0.2399149415    -0.4857085848
    6      C      -0.6532670047    -0.9582723374    -0.2385400573
    7      H      -1.1560995560    -1.9123159859    -0.4254354790
    8      C       0.6532752689    -0.9582625734     0.2385444836
    9      H       1.1561155831    -1.9122986751     0.4254574906
   10      C       1.3365187206     0.2399350256     0.4856911306
   11      C       0.6561851523     1.4350584198     0.2361986497
   12      H       1.1613288360     2.3885029698     0.4185698820
   13      C      -0.6561968153     1.4350486789    -0.2362384790
   14      H      -1.1613483313     2.3884856662    -0.4186275773
   15      H      -7.2495228018    -0.5134365570     0.3344602379
   16      H      -6.1839470627     0.2152751667     1.5553419065
   17      H      -6.0126154622    -1.5020875881     1.1404121604
   18      H      -5.4729064930     0.8424156849    -0.7927328311
   19      H      -5.2988680425    -0.8608983462    -1.1989656870
   20      H      -3.5151232349    -1.0950459208     0.5653917515
   21      H      -3.6763588751     0.6140208427     0.9521753848
   22      H      -3.0128206671     1.2140269751    -1.3960946332
   23      H      -2.8655831437    -0.4994396005    -1.7907118566
   24      H       3.0128149556     1.2140863173     1.3960411190
   25      C       2.7633292622     0.2291747608     0.9670918705
   26      H       2.8655782216    -0.4993636899     1.7907296299
   27      C       3.7745568209    -0.1144444223    -0.1276387650
   28      C       5.2161066906    -0.1425402671     0.3636223417
   29      C       6.2188738581    -0.5040605368    -0.7210048496
   30      H       3.6763623977     0.6139804626    -0.9522023323
   31      H       3.5151293161    -1.0950698822    -0.5653446207
   32      H       5.2988645958    -0.8608384792     1.1990126520
   33      H       5.4729035110     0.8424564628     0.7927000427
   34      H       6.0126238410    -1.5021379726    -1.1403312617
   35      H       7.2495260393    -0.5134471775    -0.3344204673
   36      H       6.1839554536     0.2152051894    -1.5553419842
 ----------------------------------------------------------------

   13    -547.2095490354      2.72e-09  Convergence criterion met
 Total energy in the final basis set =     -547.2095490354

         TDDFT/TDA Excitation Energies
 ---------------------------------------------------

 Excited state   1: excitation energy (eV) =  285.8480
 Total energy for state  1:                  -536.70482727 au
    Multiplicity: Singlet
    Trans. Mom.:  0.0000 X  -0.0018 Y  -0.0000 Z
    Strength   :     0.0000216531
    D(  5) --> V(  1) amplitude =  0.8195
    D(  7) --> V(  2) amplitude =  0.4098

 Excited state   2: excitation energy (eV) =  285.8594
 Total energy for state  2:                  -536.70440948 au
    Multiplicity: Singlet
    Trans. Mom.:  0.0336 X  -0.0000 Y  -0.0899 Z
    Strength   :     0.0644908004
    D(  1) --> V(  2) amplitude =  0.2127
    D(  5) --> V(  2) amplitude =  0.3860
    D(  7) --> V(  1) amplitude =  0.8255

 Excited state   3: excitation energy (eV) =  285.8761
 Total energy for state  3:                  -536.70379409 au
    Multiplicity: Singlet
    Trans. Mom.: -0.0000 X   0.0009 Y   0.0000 Z
    Strength   :     0.0000057646
    D(  6) --> V(  1) amplitude =  0.7866
    D(  8) --> V(  2) amplitude = -0.4336

 Excited state   4: excitation energy (eV) =  285.8873
 Total energy for state  4:                  -536.70338537 au
    Multiplicity: Singlet
    Trans. Mom.:  0.0237 X  -0.0000 Y  -0.0643 Z
    Strength   :     0.0328626151
    D(  1) --> V(  2) amplitude =  0.3788
    D(  6) --> V(  2) amplitude = -0.3653
    D(  8) --> V(  1) amplitude =  0.7588

 Excited state   5: excitation energy (eV) =  285.9112
 Total energy for state  5:                  -536.70250553 au
    Multiplicity: Singlet
    Trans. Mom.: -0.0000 X  -0.0005 Y   0.0000 Z
    Strength   :     0.0000018460
    D(  2) --> V(  2) amplitude =  0.8935

 Excited state   6: excitation energy (eV) =  285.9188
 Total energy for state  6:                  -536.70222508 au
    Multiplicity: Singlet
    Trans. Mom.: -0.0643 X   0.0000 Y   0.1826 Z
    Strength   :     0.2625602334
    D(  1) --> V(  2) amplitude =  0.8080
    D(  6) --> V(  2) amplitude =  0.2778
    D(  8) --> V(  1) amplitude = -0.2926

 Excited state   7: excitation energy (eV) =  287.9806
 Total energy for state  7:                  -536.62645666 au
    Multiplicity: Singlet
    Trans. Mom.: -0.0000 X  -0.0023 Y   0.0000 Z
    Strength   :     0.0000368355
    D(  6) --> V(  1) amplitude =  0.4966
    D(  8) --> V(  2) amplitude =  0.8521

 Excited state   8: excitation energy (eV) =  287.9908
 Total energy for state  8:                  -536.62608314 au
    Multiplicity: Singlet
    Trans. Mom.: -0.0019 X   0.0000 Y   0.0017 Z
    Strength   :     0.0000456269
    D(  6) --> V(  2) amplitude =  0.8371
    D(  8) --> V(  1) amplitude =  0.4896

 Excited state   9: excitation energy (eV) =  287.9997
 Total energy for state  9:                  -536.62575402 au
    Multiplicity: Singlet
    Trans. Mom.: -0.0000 X  -0.0011 Y   0.0000 Z
    Strength   :     0.0000090723
    D(  1) --> V(  1) amplitude =  0.2131
    D(  5) --> V(  1) amplitude = -0.4595
    D(  7) --> V(  2) amplitude =  0.8460

 Excited state  10: excitation energy (eV) =  288.0098
 Total energy for state 10:                  -536.62538326 au
    Multiplicity: Singlet
    Trans. Mom.:  0.0023 X  -0.0000 Y  -0.0028 Z
    Strength   :     0.0000939814
    D(  2) --> V(  1) amplitude = -0.5440
    D(  5) --> V(  2) amplitude =  0.6884
    D(  6) --> V(  2) amplitude = -0.2180
    D(  7) --> V(  1) amplitude = -0.4096

 Excited state  11: excitation energy (eV) =  288.0162
 Total energy for state 11:                  -536.62514689 au
    Multiplicity: Singlet
    Trans. Mom.: -0.0000 X   0.0006 Y  -0.0000 Z
    Strength   :     0.0000024729
    D(  1) --> V(  1) amplitude =  0.9596
    D(  7) --> V(  2) amplitude = -0.2435

 Excited state  12: excitation energy (eV) =  288.0186
 Total energy for state 12:                  -536.62506007 au
    Multiplicity: Singlet
    Trans. Mom.:  0.0001 X  -0.0000 Y  -0.0013 Z
    Strength   :     0.0000117914
    D(  2) --> V(  1) amplitude =  0.8149
    D(  5) --> V(  2) amplitude =  0.5360

 Excited state  13: excitation energy (eV) =  288.2683
 Total energy for state 13:                  -536.61588520 au
    Multiplicity: Singlet
    Trans. Mom.:  0.0051 X  -0.0000 Y   0.0266 Z
    Strength   :     0.0051718702
    D(  4) --> V(  2) amplitude =  0.9494

 Excited state  14: excitation energy (eV) =  288.2687
 Total energy for state 14:                  -536.61586953 au
    Multiplicity: Singlet
    Trans. Mom.: -0.0000 X  -0.0037 Y  -0.0001 Z
    Strength   :     0.0000984093
    D(  3) --> V(  2) amplitude =  0.9492

 Excited state  15: excitation energy (eV) =  288.3330
 Total energy for state 15:                  -536.61350617 au
    Multiplicity: Singlet
    Trans. Mom.: -0.0256 X   0.0008 Y   0.0358 Z
    Strength   :     0.0136876779
    D( 12) --> V(  2) amplitude =  0.9323

 Excited state  16: excitation energy (eV) =  288.3330
 Total energy for state 16:                  -536.61350477 au
    Multiplicity: Singlet
    Trans. Mom.:  0.0008 X   0.0248 Y  -0.0012 Z
    Strength   :     0.0043530589
    D( 11) --> V(  2) amplitude =  0.9322

 Excited state  17: excitation energy (eV) =  288.4861
 Total energy for state 17:                  -536.60787881 au
    Multiplicity: Singlet
    Trans. Mom.:  0.0000 X  -0.0270 Y  -0.0001 Z
    Strength   :     0.0051351841
    D(  4) --> V(  1) amplitude =  0.9546

 Excited state  18: excitation energy (eV) =  288.4866
 Total energy for state 18:                  -536.60786283 au
    Multiplicity: Singlet
    Trans. Mom.: -0.0022 X  -0.0001 Y   0.0111 Z
    Strength   :     0.0009079126
    D(  3) --> V(  1) amplitude =  0.9542

 Excited state  19: excitation energy (eV) =  288.5157
 Total energy for state 19:                  -536.60679139 au
    Multiplicity: Singlet
    Trans. Mom.: -0.0005 X   0.0254 Y   0.0005 Z
    Strength   :     0.0045499992
    D( 11) --> V(  2) amplitude = -0.2267
    D( 12) --> V(  1) amplitude =  0.9268

 Excited state  20: excitation energy (eV) =  288.5158
 Total energy for state 20:                  -536.60678986 au
    Multiplicity: Singlet
    Trans. Mom.:  0.0086 X   0.0014 Y  -0.0081 Z
    Strength   :     0.0010074821
    D( 11) --> V(  1) amplitude =  0.9261
    D( 12) --> V(  2) amplitude = -0.2265

 Excited state  21: excitation energy (eV) =  288.6109
 Total energy for state 21:                  -536.60329239 au
    Multiplicity: Singlet
    Trans. Mom.: -0.0251 X   0.0013 Y  -0.0436 Z
    Strength   :     0.0179020676
    D( 10) --> V(  2) amplitude =  0.8608
    D( 10) --> V(  4) amplitude = -0.2448

 Excited state  22: excitation energy (eV) =  288.6109
 Total energy for state 22:                  -536.60329236 au
    Multiplicity: Singlet
    Trans. Mom.: -0.0102 X  -0.0033 Y  -0.0176 Z
    Strength   :     0.0030030934
    D(  9) --> V(  2) amplitude =  0.8607
    D(  9) --> V(  4) amplitude = -0.2448

 Excited state  23: excitation energy (eV) =  288.7467
 Total energy for state 23:                  -536.59830344 au
    Multiplicity: Singlet
    Trans. Mom.:  0.0030 X  -0.0046 Y  -0.0003 Z
    Strength   :     0.0002138578
    D(  9) --> V(  1) amplitude =  0.3422
    D( 10) --> V(  1) amplitude =  0.2919
    D( 13) --> V(  1) amplitude = -0.2129
    D( 14) --> V(  1) amplitude =  0.8436

 Excited state  24: excitation energy (eV) =  288.7467
 Total energy for state 24:                  -536.59830331 au
    Multiplicity: Singlet
    Trans. Mom.:  0.0047 X   0.0029 Y  -0.0004 Z
    Strength   :     0.0002208488
    D(  9) --> V(  1) amplitude =  0.2918
    D( 10) --> V(  1) amplitude = -0.3426
    D( 13) --> V(  1) amplitude =  0.8434
    D( 14) --> V(  1) amplitude =  0.2130

 Excited state  25: excitation energy (eV) =  288.7553
 Total energy for state 25:                  -536.59798633 au
    Multiplicity: Singlet
    Trans. Mom.: -0.0008 X  -0.0045 Y  -0.0008 Z
    Strength   :     0.0001508527
    D( 10) --> V(  1) amplitude =  0.8526
    D( 13) --> V(  1) amplitude =  0.4243

 Excited state  26: excitation energy (eV) =  288.7553
 Total energy for state 26:                  -536.59798633 au
    Multiplicity: Singlet
    Trans. Mom.:  0.0015 X  -0.0024 Y   0.0015 Z
    Strength   :     0.0000731874
    D(  9) --> V(  1) amplitude =  0.8528
    D( 14) --> V(  1) amplitude = -0.4240

 Excited state  27: excitation energy (eV) =  288.7861
 Total energy for state 27:                  -536.59685433 au
    Multiplicity: Singlet
    Trans. Mom.: -0.0048 X  -0.0006 Y  -0.0035 Z
    Strength   :     0.0002531007
    D( 13) --> V(  1) amplitude =  0.2126
    D( 13) --> V(  2) amplitude =  0.9571

 Excited state  28: excitation energy (eV) =  288.7861
 Total energy for state 28:                  -536.59685429 au
    Multiplicity: Singlet
    Trans. Mom.:  0.0057 X  -0.0005 Y   0.0042 Z
    Strength   :     0.0003616597
    D( 14) --> V(  1) amplitude = -0.2127
    D( 14) --> V(  2) amplitude =  0.9571

 Excited state  29: excitation energy (eV) =  288.9963
 Total energy for state 29:                  -536.58913126 au
    Multiplicity: Singlet
    Trans. Mom.: -0.0361 X   0.0044 Y   0.0480 Z
    Strength   :     0.0257084915
    D( 13) --> V(  3) amplitude = -0.2420
    D( 13) --> V(  4) amplitude = -0.3116
    D( 14) --> V(  3) amplitude = -0.4486
    D( 14) --> V(  4) amplitude =  0.5053
    D( 14) --> V(  5) amplitude = -0.3709
    D( 14) --> V(  7) amplitude = -0.2777

 Excited state  30: excitation energy (eV) =  288.9963
 Total energy for state 30:                  -536.58913110 au
    Multiplicity: Singlet
    Trans. Mom.:  0.0097 X   0.0166 Y  -0.0129 Z
    Strength   :     0.0037863913
    D( 13) --> V(  3) amplitude =  0.4486
    D( 13) --> V(  4) amplitude =  0.5053
    D( 13) --> V(  5) amplitude =  0.3709
    D( 13) --> V(  7) amplitude = -0.2777
    D( 14) --> V(  3) amplitude = -0.2420
    D( 14) --> V(  4) amplitude =  0.3116

 Excited state  31: excitation energy (eV) =  289.0772
 Total energy for state 31:                  -536.58615704 au
    Multiplicity: Singlet
    Trans. Mom.:  0.0016 X   0.0187 Y   0.0043 Z
    Strength   :     0.0026288397
    D( 11) --> V(  4) amplitude =  0.5848
    D( 11) --> V( 10) amplitude = -0.2845
    D( 12) --> V(  3) amplitude = -0.5585
    D( 12) --> V( 11) amplitude = -0.2666

 Excited state  32: excitation energy (eV) =  289.0772
 Total energy for state 32:                  -536.58615577 au
    Multiplicity: Singlet
    Trans. Mom.:  0.0269 X  -0.0011 Y   0.0725 Z
    Strength   :     0.0423425943
    D( 11) --> V(  3) amplitude = -0.5584
    D( 11) --> V( 11) amplitude = -0.2665
    D( 12) --> V(  4) amplitude =  0.5848
    D( 12) --> V( 10) amplitude = -0.2845

 Excited state  33: excitation energy (eV) =  289.1064
 Total energy for state 33:                  -536.58508412 au
    Multiplicity: Singlet
    Trans. Mom.: -0.0003 X   0.0159 Y  -0.0018 Z
    Strength   :     0.0018196305
    D(  9) --> V(  2) amplitude =  0.4176
    D(  9) --> V(  4) amplitude =  0.5212
    D( 10) --> V(  3) amplitude = -0.5048

 Excited state  34: excitation energy (eV) =  289.1064
 Total energy for state 34:                  -536.58508387 au
    Multiplicity: Singlet
    Trans. Mom.:  0.0074 X   0.0006 Y   0.0510 Z
    Strength   :     0.0188292338
    D(  9) --> V(  3) amplitude = -0.5048
    D( 10) --> V(  2) amplitude =  0.4176
    D( 10) --> V(  4) amplitude =  0.5211

 Excited state  35: excitation energy (eV) =  289.1685
 Total energy for state 35:                  -536.58280171 au
    Multiplicity: Singlet
    Trans. Mom.:  0.0399 X   0.0000 Y   0.0220 Z
    Strength   :     0.0147266928
    D(  7) --> V(  3) amplitude =  0.5345
    D(  7) --> V(  5) amplitude = -0.3632
    D(  7) --> V(  6) amplitude = -0.5038
    D(  7) --> V( 12) amplitude =  0.2952

 Excited state  36: excitation energy (eV) =  289.1730
 Total energy for state 36:                  -536.58263590 au
    Multiplicity: Singlet
    Trans. Mom.:  0.0004 X   0.0362 Y   0.0010 Z
    Strength   :     0.0093008889
    D(  3) --> V(  4) amplitude = -0.4342
    D(  3) --> V(  7) amplitude = -0.3973
    D(  4) --> V(  3) amplitude =  0.5717
    D(  4) --> V(  5) amplitude = -0.3078

 Excited state  37: excitation energy (eV) =  289.1731
 Total energy for state 37:                  -536.58263427 au
    Multiplicity: Singlet
    Trans. Mom.:  0.0262 X  -0.0005 Y   0.0667 Z
    Strength   :     0.0364220665
    D(  3) --> V(  3) amplitude =  0.5703
    D(  3) --> V(  5) amplitude = -0.3072
    D(  4) --> V(  4) amplitude = -0.4328
    D(  4) --> V(  7) amplitude = -0.3960

 Excited state  38: excitation energy (eV) =  289.1845
 Total energy for state 38:                  -536.58221242 au
    Multiplicity: Singlet
    Trans. Mom.:  0.0406 X  -0.0000 Y   0.0160 Z
    Strength   :     0.0134797895
    D(  8) --> V(  3) amplitude = -0.4410
    D(  8) --> V(  5) amplitude =  0.5543
    D(  8) --> V(  6) amplitude = -0.3750
    D(  8) --> V(  9) amplitude =  0.2446
    D(  8) --> V( 11) amplitude =  0.2507

 Excited state  39: excitation energy (eV) =  289.1962
 Total energy for state 39:                  -536.58178565 au
    Multiplicity: Singlet
    Trans. Mom.: -0.0000 X  -0.0895 Y   0.0000 Z
    Strength   :     0.0568168110
    D(  5) --> V(  3) amplitude =  0.5312
    D(  5) --> V(  5) amplitude = -0.3687
    D(  5) --> V(  6) amplitude = -0.4746
    D(  5) --> V( 12) amplitude =  0.2787

 Excited state  40: excitation energy (eV) =  289.2135
 Total energy for state 40:                  -536.58114788 au
    Multiplicity: Singlet
    Trans. Mom.: -0.0000 X   0.0615 Y  -0.0000 Z
    Strength   :     0.0268030225
    D(  6) --> V(  3) amplitude = -0.4426
    D(  6) --> V(  5) amplitude =  0.5449
    D(  6) --> V(  6) amplitude = -0.3449
    D(  6) --> V(  9) amplitude =  0.2408
    D(  6) --> V( 11) amplitude =  0.2397

 Excited state  41: excitation energy (eV) =  289.3821
 Total energy for state 41:                  -536.57495077 au
    Multiplicity: Singlet
    Trans. Mom.:  0.0095 X  -0.0014 Y  -0.0194 Z
    Strength   :     0.0033163839
    D(  9) --> V(  6) amplitude = -0.4155
    D(  9) --> V( 12) amplitude = -0.2824
    D(  9) --> V( 22) amplitude =  0.2502
    D( 10) --> V(  8) amplitude =  0.5068
    D( 10) --> V( 18) amplitude =  0.2157
    D( 10) --> V( 20) amplitude =  0.2206

 Excited state  42: excitation energy (eV) =  289.3822
 Total energy for state 42:                  -536.57494996 au
    Multiplicity: Singlet
    Trans. Mom.:  0.0002 X   0.0841 Y  -0.0003 Z
    Strength   :     0.0501879773
    D(  9) --> V(  8) amplitude =  0.5067
    D(  9) --> V( 18) amplitude =  0.2157
    D(  9) --> V( 20) amplitude =  0.2205
    D( 10) --> V(  6) amplitude = -0.4155
    D( 10) --> V( 12) amplitude = -0.2823
    D( 10) --> V( 22) amplitude =  0.2502

 Excited state  43: excitation energy (eV) =  289.4594
 Total energy for state 43:                  -536.57211164 au
    Multiplicity: Singlet
    Trans. Mom.: -0.0075 X  -0.0178 Y   0.0170 Z
    Strength   :     0.0046936618
    D( 11) --> V(  6) amplitude = -0.4705
    D( 11) --> V( 24) amplitude = -0.2125
    D( 12) --> V(  8) amplitude =  0.4905

 Excited state  44: excitation energy (eV) =  289.4594
 Total energy for state 44:                  -536.57211127 au
    Multiplicity: Singlet
    Trans. Mom.:  0.0024 X  -0.0550 Y  -0.0055 Z
    Strength   :     0.0217153545
    D( 11) --> V(  8) amplitude =  0.4901
    D( 12) --> V(  6) amplitude = -0.4698
    D( 12) --> V( 24) amplitude = -0.2122

 Excited state  45: excitation energy (eV) =  289.4837
 Total energy for state 45:                  -536.57121811 au
    Multiplicity: Singlet
    Trans. Mom.:  0.0080 X   0.0002 Y  -0.0442 Z
    Strength   :     0.0143175792

 Excited state 100: excitation energy (eV) =  290.9581
 Excited state 101: excitation energy (eV) =  290.9637
 Excited state 102: excitation energy (eV) =  290.9637
 Excited state 103: excitation energy (eV) =  290.9678
 Excited state 104: excitation energy (eV) =  290.9823
 Excited state 105: excitation energy (eV) =  290.9959
 Excited state 106: excitation energy (eV) =  290.9983
 Excited state 107: excitation energy (eV) =  291.0281
 Excited state 108: excitation energy (eV) =  291.0454
 Excited state 109: excitation energy (eV) =  291.0822
 Excited state 110: excitation energy (eV) =  291.0822
 Excited state 111: excitation energy (eV) =  291.0952
 Excited state 112: excitation energy (eV) =  291.0953
 Excited state 113: excitation energy (eV) =  291.0984
 Excited state 114: excitation energy (eV) =  291.1051
 Excited state 115: excitation energy (eV) =  291.1051
 Excited state 116: excitation energy (eV) =  291.1162
 Excited state 117: excitation energy (eV) =  291.1368
 Excited state 118: excitation energy (eV) =  291.1427
 Excited state 119: excitation energy (eV) =  291.1462
 Excited state 120: excitation energy (eV) =  291.1564
 Excited state 121: excitation energy (eV) =  291.1792
 Excited state 122: excitation energy (eV) =  291.1964
 Excited state 123: excitation energy (eV) =  291.2372
 Excited state 124: excitation energy (eV) =  291.2372
 Excited state 125: excitation energy (eV) =  291.2412
 Excited state 126: excitation energy (eV) =  291.2413
 Excited state 127: excitation energy (eV) =  291.2660
 Excited state 128: excitation energy (eV) =  291.2660
 Excited state 129: excitation energy (eV) =  291.2748
 Excited state 130: excitation energy (eV) =  291.2749
 Excited state 131: excitation energy (eV) =  291.3252
 Excited state 132: excitation energy (eV) =  291.3252
 Excited state 133: excitation energy (eV) =  291.3393
 Excited state 134: excitation energy (eV) =  291.3393
 Excited state 135: excitation energy (eV) =  291.4094
 Excited state 136: excitation energy (eV) =  291.4095
 Excited state 137: excitation energy (eV) =  291.4676
 Excited state 138: excitation energy (eV) =  291.4786
 Excited state 139: excitation energy (eV) =  291.4828
 Excited state 161: excitation energy (eV) =  291.7020
 Excited state 162: excitation energy (eV) =  291.7086
 Excited state 163: excitation energy (eV) =  291.7086
 Excited state 164: excitation energy (eV) =  291.7182
 Excited state 165: excitation energy (eV) =  291.7508
 Excited state 166: excitation energy (eV) =  291.7509
 Excited state 167: excitation energy (eV) =  291.7689
 Excited state 168: excitation energy (eV) =  291.7690
 Excited state 169: excitation energy (eV) =  291.8155
 Excited state 170: excitation energy (eV) =  291.8246
 Excited state 171: excitation energy (eV) =  291.8246
 Excited state 172: excitation energy (eV) =  291.8307
 Excited state 173: excitation energy (eV) =  291.8865
 Excited state 174: excitation energy (eV) =  291.8865
 Excited state 175: excitation energy (eV) =  291.9316
 Excited state 176: excitation energy (eV) =  291.9319
 Excited state 177: excitation energy (eV) =  291.9488
 Excited state 178: excitation energy (eV) =  291.9491
 Excited state 179: excitation energy (eV) =  291.9832
 Excited state 180: excitation energy (eV) =  291.9832
 Excited state 181: excitation energy (eV) =  292.0081
 Excited state 182: excitation energy (eV) =  292.0081
 Excited state 183: excitation energy (eV) =  292.0185
 Excited state 184: excitation energy (eV) =  292.0299
 Excited state 185: excitation energy (eV) =  292.0531
 Excited state 186: excitation energy (eV) =  292.0532
 Excited state 187: excitation energy (eV) =  292.0633
 Excited state 188: excitation energy (eV) =  292.0633
 Excited state 189: excitation energy (eV) =  292.0733
 Excited state 190: excitation energy (eV) =  292.0733
 Excited state 191: excitation energy (eV) =  292.0911
 Excited state 192: excitation energy (eV) =  292.0923
 Excited state 193: excitation energy (eV) =  292.0995
 Excited state 194: excitation energy (eV) =  292.1050
 Excited state 195: excitation energy (eV) =  292.1432
 Excited state 196: excitation energy (eV) =  292.1432
 Excited state 197: excitation energy (eV) =  292.1818
 Excited state 198: excitation energy (eV) =  292.1819
 Excited state 199: excitation energy (eV) =  292.2493
 Excited state 200: excitation energy (eV) =  292.2498

                    Orbital Energies (a.u.)
 --------------------------------------------------------------

 Alpha MOs
 -- Occupied --
-10.632 -10.632 -10.629 -10.629 -10.629 -10.628 -10.628 -10.628
-10.626 -10.626 -10.625 -10.625 -10.622 -10.622  -0.893  -0.842
 -0.825  -0.796  -0.768  -0.758  -0.721  -0.669  -0.637  -0.624
 -0.598  -0.593  -0.581  -0.504  -0.497  -0.479  -0.464  -0.462
 -0.442  -0.440  -0.429  -0.426  -0.421  -0.407  -0.400  -0.390
 -0.373  -0.368  -0.362  -0.355  -0.345  -0.342  -0.339  -0.332
 -0.332  -0.329  -0.327  -0.245  -0.229

          Ground-State Mulliken Net Atomic Charges

     Atom                 Charge (a.u.)
  ----------------------------------------
      1 C                     0.027916
      2 C                    -0.024059
      3 C                    -0.016557
      4 C                     0.117329
      5 C                    -0.063841
      6 C                    -0.003957
      7 H                    -0.021469
      8 C                    -0.003957
      9 H                    -0.021469
     10 C                    -0.063841
     11 C                    -0.004639
     12 H                    -0.023604
     13 C                    -0.004639
     14 H                    -0.023604
     15 H                     0.010178
     16 H                     0.008045
     17 H                     0.007579
     18 H                    -0.000300
     19 H                    -0.001405
     20 H                    -0.001777
     21 H                    -0.001152
     22 H                    -0.008480
     23 H                     0.000194
     24 H                    -0.008480
     25 C                     0.117330
     26 H                     0.000195
     27 C                    -0.016558
     28 C                    -0.024060
     29 C                     0.027916
     30 H                    -0.001152
     31 H                    -0.001777
     32 H                    -0.001405
     33 H                    -0.000300
     34 H                     0.007579
     35 H                     0.010178
     36 H                     0.008045
  ----------------------------------------
  Sum of atomic charges =    -0.000000

                    Cartesian Multipole Moments
 -----------------------------------------------------------------
    Charge (ESU x 10^10)
                -0.0000
    Dipole Moment (Debye)
         X      -0.0000      Y      -0.0662      Z       0.0000
       Tot       0.0662
    Quadrupole Moments (Debye-Ang)
        XX     -85.5239     XY       0.0000     YY     -85.4183
        XZ       2.5152     YZ      -0.0001     ZZ     -92.2654

 Total job time:  8569.50s(wall), 8553.41s(cpu)
        *  Thank you very much for using Q-Chem.  Have a nice day.  *
