 Q-Chem 5.2, Q-Chem, Inc., Pleasanton, CA (2019)
 Q-Chem 5.2.1 for Intel X86 EM64T Linux

User input:
--------------------------------------------------------------
$molecule
-1 2
N    1.4203982   -0.4376306   -0.5329729
C    0.4365997    0.3308159   -0.0013080
O    0.5877394    1.5413635    0.0843008
C   -0.8424473   -0.2920880    0.4964540
C   -2.0547973    0.2526489   -0.2685198
C   -3.3549653   -0.3750625    0.2479200
O    2.5590002    0.1172401   -0.9748634
H    1.3006495   -1.4588779   -0.6099938
H   -0.9485928   -0.0664413    1.5798062
H   -0.8035688   -1.3965720    0.3738043
H   -1.9385302    0.0231719   -1.3510105
H   -2.1070288    1.3565441   -0.1400060
H   -3.3075273   -1.4788678    0.1174027
H   -3.4645172   -0.1474011    1.3313709
H    3.1935416    0.0373324   -0.2169024
C   -4.5725701    0.1721125   -0.5066782
C   -5.8692294   -0.4526642    0.0221639
C   -7.0925815    0.0982534   -0.7199711
C   -8.3861427   -0.5239716   -0.1804955
C   -9.6125084    0.0294042   -0.9149412
C  -10.9005861   -0.5863741   -0.3759369
H   -4.4682851   -0.0564016   -1.5904178
H   -4.6182997    1.2759900   -0.3763828
H   -5.9679413   -0.2257415    1.1068075
H   -5.8255865   -1.5564549   -0.1097756
H   -6.9986249   -0.1295255   -1.8048114
H   -7.1345285    1.2021305   -0.5882822
H   -8.4768688   -0.2970153    0.9048807
H   -8.3458400   -1.6278468   -0.3129855
H   -9.5325165   -0.1976668   -2.0004418
H   -9.6605105    1.1325018   -0.7835352
H  -10.8892094   -1.6885620   -0.5142932
H  -11.7711725   -0.1681421   -0.9237016
H  -11.0162259   -0.3554746    0.7045988
$end

$rem
BASIS  =  def2-SVP
GUI  =  2
JOB_TYPE  =  Force
METHOD  =  PBE0
SCF_CONVERGENCE  =  8
$end

--------------------------------------------------------------

             Standard Nuclear Orientation (Angstroms)
    I     Atom           X                Y                Z
 ----------------------------------------------------------------
    1      N      -5.1489657119    -0.5310599272     0.5287034254
    2      C      -4.2153608666     0.0847826444    -0.2395133394
    3      O      -4.4293620052     1.2066223667    -0.6768652771
    4      C      -2.9156120740    -0.6028268293    -0.5705477686
    5      C      -1.7187480454     0.1974383213    -0.0425251240
    6      C      -0.3980057514    -0.4994314133    -0.3906355415
    7      O      -6.3060370572     0.0810309253     0.8221210666
    8      H      -4.9760866431    -1.4763694965     0.9024956990
    9      H      -2.8408671079    -0.7072000040    -1.6747917272
   10      H      -2.8960657132    -1.6206618143    -0.1232567267
   11      H      -1.8034209194     0.2974669017     1.0623679184
   12      H      -1.7250380254     1.2135328180    -0.4956707396
   13      H      -0.3868972564    -1.5146346121     0.0642384369
   14      H      -0.3199635426    -0.6017669720    -1.4956848760
   15      H      -6.9494297154    -0.2491672610     0.1434842333
   16      C       0.8037920835     0.3002806189     0.1265907172
   17      C       2.1206552321    -0.3976522814    -0.2341118564
   18      C       3.3277742482     0.4021469258     0.2699217038
   19      C       4.6412200085    -0.2966674971    -0.1015848086
   20      C       5.8510829225     0.5033047730     0.3942822994
   21      C       7.1587341718    -0.1894594165     0.0214838293
   22      H       0.7310576945     0.4021164111     1.2319977716
   23      H       0.7909780631     1.3155454757    -0.3280373660
   24      H       2.1878890218    -0.5015153617    -1.3397256081
   25      H       2.1355785127    -1.4122528098     0.2219908810
   26      H       3.2653359229     0.5054573634     1.3758231260
   27      H       3.3111577262     1.4168317709    -0.1859123949
   28      H       4.7004645673    -0.4010614263    -1.2076471363
   29      H       4.6594929604    -1.3110401360     0.3549593990
   30      H       5.8025650025     0.6080886308     1.5001475038
   31      H       5.8405574444     1.5175918228    -0.0612471163
   32      H       7.2059122727    -1.1992238534     0.4821790330
   33      H       8.0167965786     0.4105348796     0.3911060730
   34      H       7.2427440628    -0.2875742477    -1.0819473464
 ----------------------------------------------------------------

   29    -597.6482721907      8.47e-09  Convergence criterion met
 Total energy in the final basis set =     -597.6482721907

                    Orbital Energies (a.u.)
 --------------------------------------------------------------

 Alpha MOs
 -- Occupied --
-19.1099 -18.9890 -14.3039 -10.1435 -10.1266 -10.1247 -10.1178 -10.1166
-10.1137 -10.1117 -10.1050 -10.1013 -10.0993  -0.9844  -0.8642  -0.7188
 -0.7110  -0.6953  -0.6638  -0.6224  -0.5728  -0.5219  -0.4838  -0.4750
 -0.4660  -0.4564  -0.4397  -0.3914  -0.3709  -0.3578  -0.3465  -0.3405
 -0.3296  -0.3159  -0.3059  -0.3025  -0.2787  -0.2742  -0.2588  -0.2548
 -0.2434  -0.2402  -0.2318  -0.2287  -0.2238  -0.2204  -0.2147  -0.2085
 -0.1910  -0.1830  -0.1122  -0.0948   0.1332

 Beta MOs
 -- Occupied --
-19.1089 -18.9864 -14.3029 -10.1400 -10.1260 -10.1242 -10.1173 -10.1164
-10.1134 -10.1115 -10.1045 -10.1007 -10.0993  -0.9812  -0.8591  -0.7179
 -0.7077  -0.6944  -0.6628  -0.6212  -0.5710  -0.5197  -0.4810  -0.4727
 -0.4638  -0.4541  -0.4369  -0.3903  -0.3699  -0.3539  -0.3448  -0.3393
 -0.3278  -0.3144  -0.3042  -0.3008  -0.2769  -0.2721  -0.2561  -0.2517
 -0.2423  -0.2382  -0.2296  -0.2274  -0.2223  -0.2183  -0.2121  -0.2040
 -0.1889  -0.1805  -0.1018  -0.0923

          Ground-State Mulliken Net Atomic Charges

     Atom                 Charge (a.u.)    Spin (a.u.)
  --------------------------------------------------------
      1 N                    -0.071538       0.018737
      2 C                     0.058088       0.194053
      3 O                    -0.358284       0.076822
      4 C                     0.005185      -0.015309
      5 C                    -0.033288      -0.027523
      6 C                    -0.017135      -0.006836
      7 O                    -0.215301      -0.024310
      8 H                     0.107052       0.001955
      9 H                    -0.043494       0.091350
     10 H                    -0.053106       0.029243
     11 H                    -0.015483       0.030500
     12 H                     0.033928       0.003789
     13 H                    -0.029644       0.040035
     14 H                    -0.026522       0.044269
     15 H                     0.030907       0.189560
     16 C                    -0.034439      -0.005971
     17 C                    -0.033391      -0.002749
     18 C                    -0.028219      -0.004101
     19 C                    -0.023294      -0.023109
     20 C                    -0.043419      -0.025767
     21 C                     0.001862      -0.046617
     22 H                     0.001920       0.011604
     23 H                     0.003845       0.013516
     24 H                    -0.005502       0.022829
     25 H                    -0.011889       0.028078
     26 H                    -0.009392       0.024350
     27 H                    -0.006911       0.022799
     28 H                    -0.031997       0.051288
     29 H                    -0.033573       0.052558
     30 H                    -0.027571       0.049394
     31 H                    -0.025423       0.047464
     32 H                    -0.021778       0.049311
     33 H                    -0.021477       0.040365
     34 H                    -0.020716       0.048422
  --------------------------------------------------------
  Sum of atomic charges =    -1.000000

                    Cartesian Multipole Moments
 -----------------------------------------------------------------
    Charge (ESU x 10^10)
                -4.8032
    Dipole Moment (Debye)
         X       3.9670      Y      -3.2799      Z       0.9858
       Tot       5.2409
    Quadrupole Moments (Debye-Ang)
        XX    -205.0758     XY      19.8831     YY     -93.5146
        XZ      -2.1892     YZ      -0.3195     ZZ     -93.0643

 Total job time:  420.37s(wall), 420.77s(cpu)
        *  Thank you very much for using Q-Chem.  Have a nice day.  *
