 Q-Chem 5.1, Q-Chem, Inc., Pleasanton, CA (2018)
 Q-Chem 5.1.2 for Intel X86 EM64T Linux

User input:
--------------------------------------------------------------
$molecule
0 1
C	2.4304274707	-0.7073198348	0.0000000000
C	2.4304274707	0.7073198348	0.0000000000
C	1.2429414410	1.4002518046	0.0000000000
C	0.0000000000	0.7151534941	0.0000000000
C	0.0000000000	-0.7151534941	0.0000000000
C	1.2429414410	-1.4002518046	0.0000000000
C	-1.2429414410	-1.4002518046	0.0000000000
C	-2.4304274707	-0.7073198348	0.0000000000
C	-2.4304274707	0.7073198348	0.0000000000
C	-1.2429414410	1.4002518046	0.0000000000
H	3.3785059800	-1.2481439436	0.0000000000
H	3.3785059800	1.2481439436	0.0000000000
H	1.2414657771	2.4923775989	0.0000000000
H	1.2414657771	-2.4923775989	0.0000000000
H	-1.2414657771	-2.4923775989	0.0000000000
H	-3.3785059800	-1.2481439436	0.0000000000
H	-3.3785059800	1.2481439436	0.0000000000
H	-1.2414657771	2.4923775989	0.0000000000
$end
$rem
JOBTYPE 		SP
BASIS 			def2-QZVPD
BASIS2			def2-SVP
METHOD			PBE0
GUI 			2
!SCF OPTIONS
MAX_SCF_CYCLES          400
SCF_CONVERGENCE         8
GEN_SCFMAN_HYBRID_ALGO 	TRUE
GEN_SCFMAN_ALGO_1	DIIS
GEN_SCFMAN_ITER_1	50
GEN_SCFMAN_ALGO_2	GDM
MEM_TOTAL               20000
$end
--------------------------------------------------------------

    6    -385.1599355920      7.47E-05 Convergence criterion met
   10    -385.5818964282      2.90E-09 Convergence criterion met
 Total energy in the final basis set = -385.58189643
 Total job time:  1280.81s(wall), 6187.98s(cpu)
        *  Thank you very much for using Q-Chem.  Have a nice day.  *
 Q-Chem 5.1, Q-Chem, Inc., Pleasanton, CA (2018)
 Q-Chem 5.1.2 for Intel X86 EM64T Linux

User input:
--------------------------------------------------------------
$molecule
-1 2
C	2.4304274707	-0.7073198348	0.0000000000
C	2.4304274707	0.7073198348	0.0000000000
C	1.2429414410	1.4002518046	0.0000000000
C	0.0000000000	0.7151534941	0.0000000000
C	0.0000000000	-0.7151534941	0.0000000000
C	1.2429414410	-1.4002518046	0.0000000000
C	-1.2429414410	-1.4002518046	0.0000000000
C	-2.4304274707	-0.7073198348	0.0000000000
C	-2.4304274707	0.7073198348	0.0000000000
C	-1.2429414410	1.4002518046	0.0000000000
H	3.3785059800	-1.2481439436	0.0000000000
H	3.3785059800	1.2481439436	0.0000000000
H	1.2414657771	2.4923775989	0.0000000000
H	1.2414657771	-2.4923775989	0.0000000000
H	-1.2414657771	-2.4923775989	0.0000000000
H	-3.3785059800	-1.2481439436	0.0000000000
H	-3.3785059800	1.2481439436	0.0000000000
H	-1.2414657771	2.4923775989	0.0000000000
$end
$rem
JOBTYPE 		SP
BASIS 			def2-QZVPD
BASIS2 			def2-SVP ! just to ensure convergence
METHOD			PBE0
!SCF OPTIONS
MAX_SCF_CYCLES          400
SCF_CONVERGENCE         8
GEN_SCFMAN_HYBRID_ALGO  TRUE
GEN_SCFMAN_ALGO_1       DIIS
GEN_SCFMAN_ITER_1       50
GEN_SCFMAN_ALGO_2       GDM
MEM_TOTAL               20000
$end
--------------------------------------------------------------

             Standard Nuclear Orientation (Angstroms)
    I     Atom           X                Y                Z
 ----------------------------------------------------------------
    1      C       2.4304274707    -0.7073198348    -0.0000000000
    2      C       2.4304274707     0.7073198348     0.0000000000
    3      C       1.2429414410     1.4002518046     0.0000000000
    4      C       0.0000000000     0.7151534941     0.0000000000
    5      C       0.0000000000    -0.7151534941    -0.0000000000
    6      C       1.2429414410    -1.4002518046    -0.0000000000
    7      C      -1.2429414410    -1.4002518046    -0.0000000000
    8      C      -2.4304274707    -0.7073198348    -0.0000000000
    9      C      -2.4304274707     0.7073198348     0.0000000000
   10      C      -1.2429414410     1.4002518046     0.0000000000
   11      H       3.3785059800    -1.2481439436    -0.0000000000
   12      H       3.3785059800     1.2481439436     0.0000000000
   13      H       1.2414657771     2.4923775989     0.0000000000
   14      H       1.2414657771    -2.4923775989    -0.0000000000
   15      H      -1.2414657771    -2.4923775989    -0.0000000000
   16      H      -3.3785059800    -1.2481439436    -0.0000000000
   17      H      -3.3785059800     1.2481439436     0.0000000000
   18      H      -1.2414657771     2.4923775989     0.0000000000
 ----------------------------------------------------------------

    6    -385.1406987503      8.22E-05 Convergence criterion met
   12    -385.5706380336      9.01E-09 Convergence criterion met
 Total energy in the final basis set = -385.57063803

             Orbital Energies (a.u.) and Symmetries
 --------------------------------------------------------------

 Alpha MOs, Unrestricted
 -- Occupied --
-10.066 -10.066 -10.055 -10.055 -10.054 -10.054 -10.043 -10.043
  1 Ag    1 B2u   2 Ag    1 B3u   2 B2u   1 B1g   2 B3u   2 B1g
-10.043 -10.043  -0.724  -0.671  -0.621  -0.589  -0.567  -0.473
  3 B2u   3 Ag    4 Ag    3 B3u   4 B2u   5 Ag    3 B1g   4 B3u
 -0.456  -0.441  -0.359  -0.356  -0.337  -0.289  -0.282  -0.256
  5 B2u   6 Ag    5 B3u   4 B1g   7 Ag    6 B2u   8 Ag    5 B1g
 -0.254  -0.243  -0.239  -0.209  -0.180  -0.176  -0.169  -0.135
  6 B3u   7 B2u   1 B1u   7 B3u   1 B2g   6 B1g   9 Ag    1 B3g
 -0.093  -0.069   0.068
  2 B1u   1 Au    2 B2g

 Beta MOs, Unrestricted
 -- Occupied --
-10.067 -10.067 -10.054 -10.054 -10.054 -10.054 -10.040 -10.040
  1 Ag    1 B2u   1 B3u   2 Ag    2 B2u   1 B1g   2 B1g   2 B3u
-10.040 -10.040  -0.721  -0.666  -0.615  -0.587  -0.561  -0.465
  3 B2u   3 Ag    4 Ag    3 B3u   4 B2u   5 Ag    3 B1g   4 B3u
 -0.455  -0.437  -0.356  -0.351  -0.335  -0.286  -0.281  -0.253
  5 B2u   6 Ag    5 B3u   4 B1g   7 Ag    6 B2u   8 Ag    5 B1g
 -0.252  -0.241  -0.229  -0.207  -0.174  -0.168  -0.164  -0.116
  6 B3u   7 B2u   1 B1u   7 B3u   6 B1g   9 Ag    1 B2g   1 B3g
 -0.084  -0.045
  2 B1u   1 Au

          Ground-State Mulliken Net Atomic Charges

     Atom                 Charge (a.u.)    Spin (a.u.)
  --------------------------------------------------------
      1 C                    -0.449319       0.071332
      2 C                    -0.449319       0.071332
      3 C                    -0.231709       0.214517
      4 C                     0.106154      -0.012784
      5 C                     0.106154      -0.012784
      6 C                    -0.231709       0.214517
      7 C                    -0.231709       0.214517
      8 C                    -0.449319       0.071332
      9 C                    -0.449319       0.071332
     10 C                    -0.231709       0.214517
     11 H                     0.200815      -0.010404
     12 H                     0.200815      -0.010404
     13 H                     0.177136      -0.019053
     14 H                     0.177136      -0.019053
     15 H                     0.177136      -0.019053
     16 H                     0.200815      -0.010404
     17 H                     0.200815      -0.010404
     18 H                     0.177136      -0.019053
  --------------------------------------------------------
  Sum of atomic charges =    -1.000000

                    Cartesian Multipole Moments
 -----------------------------------------------------------------
    Charge (ESU x 10^10)
                -4.8032
    Dipole Moment (Debye)
         X       0.0000      Y      -0.0000      Z       0.0000
       Tot       0.0000
    Quadrupole Moments (Debye-Ang)
        XX     -81.1911     XY       0.0000     YY     -67.2692
        XZ       0.0000     YZ       0.0000     ZZ     -69.8638

 Total job time:  1813.16s(wall), 8571.23s(cpu)
        *  Thank you very much for using Q-Chem.  Have a nice day.  *
